TITLE="Cas_Geier Re = 100.0"
VARIABLES = X,Y,Rho,U,V
ZONE
I = 33	J = 33
F=POINT
1,1,1.0003409421769665,6.820372620251069e-7,2.390840466332645e-6
1,2,1.0003438366933053,-1.5069404618492872e-6,3.7098559107291143e-6
1,3,1.000352413910441,-9.456841668933722e-6,2.556631762988582e-5
1,4,1.0003639351800215,-1.845342492650767e-5,6.736954052799581e-5
1,5,1.0003749706355753,-2.7226972981580606e-5,0.00013879406842121864
1,6,1.0003833045399233,-3.556891383174576e-5,0.00022989375889082963
1,7,1.0003872855472116,-4.343658992479114e-5,0.00034788337403310825
1,8,1.0003855053793518,-5.081556785720888e-5,0.0004822472395744357
1,9,1.0003767198891527,-5.767162988336757e-5,0.0006400432306432979
1,10,1.000359809386715,-6.395886749756726e-5,0.0008104553158202322
1,11,1.0003337884321253,-6.958576039350714e-5,0.0010003073353456223
1,12,1.0002978160040905,-7.448524665700491e-5,0.0011981489369735127
1,13,1.0002512368793206,-7.854393477813559e-5,0.0014105136284607341
1,14,1.0001936016888813,-8.173094982092485e-5,0.001625175677784134
1,15,1.000124706281802,-8.397245494245106e-5,0.0018486904657255335
1,16,1.0000445932364275,-8.535483243583117e-5,0.0020682992442574307
1,17,0.9999535597127196,-8.592742765787167e-5,0.0022914172305584348
1,18,0.9998521114762903,-8.599968353110132e-5,0.002505518583518018
1,19,0.9997409081469216,-8.586050252422348e-5,0.0027203951934825056
1,20,0.999620636999343,-8.620384939096417e-5,0.002925234448104148
1,21,0.9994918504364982,-8.777447084276277e-5,0.0031347254617085604
1,22,0.9993546872523886,-9.198771263986084e-5,0.003342535751001785
1,23,0.9992084869296576,-0.0001005622541375833,0.0035728201282087166
1,24,0.9990510859705333,-0.00011655572071006582,0.003829641347867853
1,25,0.9988774053800429,-0.00014415061090200325,0.004156671501204653
1,26,0.9986775307232442,-0.0001895491617167789,0.004582419096234541
1,27,0.9984352585249261,-0.00026328051993856054,0.005191817392232071
1,28,0.998109947805902,-0.0003934687716487384,0.0060829913570735784
1,29,0.9975853664781997,-0.0005883828428419845,0.007463668060209778
1,30,0.9967980266364721,-0.0007417581060718046,0.009422172576087915
1,31,0.9957758657541667,-0.0013820657212542642,0.012224621940068445
1,32,0.9913474588372515,-0.0033629391994260192,0.017955567883014025
1,33,0.973605839885753,0.025125299853339104,0.011513026839777705
2,1,1.0003362083660094,4.588626612143737e-6,6.378380852230317e-6
2,2,1.0003398995415282,-1.716963167321582e-5,3.267261370628622e-5
2,3,1.0003471024804556,-6.445168835201567e-5,0.00010874766183377304
2,4,1.0003560091026207,-0.00011914401984273745,0.00024118781962309785
2,5,1.0003643034726835,-0.00017317407070870623,0.0004423237581459955
2,6,1.0003699754277222,-0.00022422391526976442,0.0007021668898919928
2,7,1.0003714349280117,-0.0002716746750958078,0.0010256365037696114
2,8,1.000367301492401,-0.00031526722313647624,0.0014001961701831285
2,9,1.0003563798559991,-0.00035471012706995655,0.0018297199195710296
2,10,1.0003375604315927,-0.00038957303571963373,0.002300707295197331
2,11,1.0003099080906273,-0.0004193259780321355,0.0028160565234953672
2,12,1.0002725888993353,-0.00044337234569296344,0.0033608492653107425
2,13,1.000224999288005,-0.00046117701973876954,0.0039368365514538105
2,14,1.0001666831229885,-0.00047232797605253175,0.004527582432815608
2,15,1.0000974720718943,-0.00047673249687087724,0.00513427641932682
2,16,1.000017367128682,-0.00047469060031813526,0.005739801335033699
2,17,0.9999266604487199,-0.00046715769002104345,0.006346579824177341
2,18,0.9998257539928153,-0.0004558263239401206,0.006938968681623852
2,19,0.9997152307392849,-0.00044349176099799765,0.007524001544549418
2,20,0.999595576290373,-0.00043420948132172414,0.00809140924064382
2,21,0.9994671555311387,-0.00043392120771288035,0.00865843058246884
2,22,0.9993297653427726,-0.00045093877801136883,0.009226839698147096
2,23,0.9991823783664452,-0.0004972840291309823,0.009833657345207964
2,24,0.9990222243197436,-0.0005901663703781381,0.010504933665497337
2,25,0.9988440695707345,-0.0007547295720801418,0.011314770528863642
2,26,0.9986379279568921,-0.0010275547305915234,0.012336381484661707
2,27,0.9983820633823612,-0.0014657326984041314,0.01371549061047303
2,28,0.998038087280525,-0.0021483783351028424,0.015594372012305811
2,29,0.9975812808300787,-0.0031235148204834407,0.018135572999071252
2,30,0.9968472756391902,-0.004453727308344748,0.021614980294055657
2,31,0.994861893168223,-0.0063935394646116445,0.0261392254634762
2,32,0.9926036557895936,-0.0037696842246452062,0.025176706772554285
2,33,0.9962701658389236,0.048970783416393104,0.007725173990582163
3,1,1.0003270700256905,-1.719727772637146e-5,1.338071607904686e-5
3,2,1.000332357110412,-8.8816884676604e-5,7.753474814174939e-5
3,3,1.0003395412636755,-0.0002049144561912626,0.0002193601918472065
3,4,1.0003467030244273,-0.000337055397039645,0.0004422928297205949
3,5,1.0003526078509422,-0.00046943753543108777,0.0007579897453277461
3,6,1.0003557356099395,-0.0005960976327556236,0.0011575698932391467
3,7,1.0003546955130416,-0.000714978672239742,0.0016447866508987323
3,8,1.0003481738974145,-0.0008251052879484199,0.0022068101094762367
3,9,1.0003350478204769,-0.0009255586780782308,0.002845229554606283
3,10,1.000314213246984,-0.0010152058659720473,0.0035454692760269546
3,11,1.0002847952071752,-0.0010927025495251364,0.004307410526436851
3,12,1.0002459397587082,-0.001156608172193437,0.0051144359266532
3,13,1.0001971118964483,-0.0012055742430592744,0.00596459800961959
3,14,1.0001378125076805,-0.001238589632554114,0.006839200200539135
3,15,1.000067951061457,-0.0012552811255610477,0.0077351634580470705
3,16,0.9999874519759808,-0.001256251713902267,0.008632785091950642
3,17,0.9998966872752115,-0.0012434670363483935,0.009530021102788487
3,18,0.9997959317590817,-0.0012206814794038711,0.010408860860043901
3,19,0.9996858399172968,-0.001193955142648309,0.011272360596891854
3,20,0.9995667035860255,-0.0011722871941395538,0.012108884221460083
3,21,0.999438952381493,-0.0011685013604103636,0.012932935746994553
3,22,0.9993021329513192,-0.0012004716979202626,0.013746341538341679
3,23,0.9991553564208607,-0.0012929169851408537,0.014584138498119615
3,24,0.9989958356645369,-0.0014797410583631803,0.015471089115764078
3,25,0.9988189306775037,-0.0018070673159034586,0.016473255852116744
3,26,0.9986148292367066,-0.002336300715183315,0.01764473678943511
3,27,0.9983682736361217,-0.003140053309289249,0.01907182543750957
3,28,0.998059311490868,-0.004272734096283103,0.02077449758627825
3,29,0.9976328719391404,-0.005731016980340992,0.022731142365495956
3,30,0.9969053173187699,-0.007259796608164451,0.024492990143823695
3,31,0.9959300132349032,-0.006248577659769321,0.02374410094817018
3,32,0.9962386243377283,0.008411319071352601,0.01554394381581666
3,33,0.9983530127211244,0.06151662444832623,0.0026982548499276063
4,1,1.0003162517517366,-5.18542251454659e-5,2.032253881983626e-5
4,2,1.0003235659611958,-0.00020574501273156847,0.00012268312753040594
4,3,1.0003320043318895,-0.0004129288267211253,0.000328202079303843
4,4,1.00033893776639,-0.0006412684676490397,0.0006336225702400941
4,5,1.0003437726177433,-0.0008701141348144353,0.0010469158777986207
4,6,1.0003454341941342,-0.001090127238077298,0.0015596345114468981
4,7,1.0003427891035557,-0.0012973868257478679,0.0021743908759527435
4,8,1.0003346339670127,-0.0014897625296231545,0.002879043260916373
4,9,1.0003199165458347,-0.0016653396495159539,0.0036735514757031103
4,10,1.0002975494853257,-0.0018219429859151527,0.004543493605069683
4,11,1.0002666849823048,-0.0019570960550757705,0.005486533712130361
4,12,1.0002264588030934,-0.0020681883205079256,0.006485676912926176
4,13,1.0001763575424203,-0.0021527587051954743,0.007536128775287394
4,14,1.0001158722982841,-0.0022089008040178937,0.008618222551906904
4,15,1.0000449514548817,-0.0022357429445035827,0.009725318829980165
4,16,0.9999635302619737,-0.0022340164285691035,0.010836083810263008
4,17,0.9998720569289852,-0.0022066660146146176,0.011944138112950623
4,18,0.9997708579197115,-0.0021595362767347294,0.01302911248132289
4,19,0.9996607265982651,-0.0021021203357645614,0.014088824202372402
4,20,0.9995420847227571,-0.002048446475059226,0.01510820847666067
4,21,0.9994156288452609,-0.0020181487606433725,0.016094864656751726
4,22,0.9992812435778288,-0.0020378001065269047,0.01704439753938464
4,23,0.9991387012274557,-0.002142475200517443,0.017979909372891883
4,24,0.9989862112700735,-0.002377218765499274,0.01891067975739362
4,25,0.998820906855705,-0.0027972434436424054,0.019873890830455355
4,26,0.9986371174009371,-0.0034620515809521083,0.02087548849079458
4,27,0.9984280968425552,-0.004412532235875536,0.021918821712213408
4,28,0.998177273266066,-0.00561569889546887,0.022898616050439042
4,29,0.9978425961900854,-0.006796241772892136,0.023523052525233526
4,30,0.9974496054243689,-0.006691206990231612,0.022786770140888726
4,31,0.997385013605128,-0.0008739519222624841,0.01873240486900367
4,32,0.9980106007891504,0.020142623599242366,0.01025899807254732
4,33,0.9985442144362935,0.06777430966004833,0.0016791771002691114
5,1,1.0003064034677775,-0.00011414627853734216,2.5968077918408233e-5
5,2,1.000315600019692,-0.0003806525835736773,0.00016051675347176142
5,3,1.0003255948327041,-0.0006989921651883897,0.00041982617340004073
5,4,1.0003329951738518,-0.0010385750528367076,0.0007939910397539539
5,5,1.0003375386826423,-0.0013773157564931674,0.0012858353171706957
5,6,1.0003384348771822,-0.0017039633485395394,0.001886479427907514
5,7,1.0003347611522826,-0.0020130967858182705,0.002596952511112795
5,8,1.0003254347138766,-0.00230138201692983,0.003406205094830626
5,9,1.0003094644986743,-0.0025657459604718296,0.004312987087696524
5,10,1.0002857869484463,-0.002802764649840377,0.005303869995220398
5,11,1.0002535573782814,-0.003008589828504605,0.006374956652429386
5,12,1.0002119083260366,-0.0031791556245248627,0.0075097810163906415
5,13,1.0001603206605811,-0.003310552590246417,0.008701354899605553
5,14,1.0000982989226452,-0.003399576533139436,0.009929810285934476
5,15,1.0000258187843782,-0.003444385968002214,0.011185396538144588
5,16,0.9999428893728212,-0.0034452792277903277,0.012445546547169848
5,17,0.9998500643839594,-0.0034055153157713882,0.013699516092143546
5,18,0.9997478539459611,-0.003332205501160844,0.014924258104330212
5,19,0.9996372918961635,-0.0032372192657380886,0.01611142113597962
5,20,0.9995191676932785,-0.003138152702355801,0.017240944937348655
5,21,0.9993946638914726,-0.0030593081170734115,0.018311071711129816
5,22,0.9992644004067885,-0.00303262375104724,0.019307701578688448
5,23,0.999129172637798,-0.003098201462218337,0.020237551134634317
5,24,0.9989887749994231,-0.003303400587029016,0.021089039957601436
5,25,0.9988429812939323,-0.0036975652861752366,0.021865644144986693
5,26,0.9986904768851006,-0.004315445929886387,0.02252657050701649
5,27,0.9985287427510432,-0.0051359302082982445,0.023008116526833888
5,28,0.9983507408616566,-0.005974768502436974,0.023102162390312892
5,29,0.9981687807558206,-0.006163594239147108,0.022370262969778135
5,30,0.9980783098823262,-0.003758588955533006,0.01993133798041953
5,31,0.9982333391909397,0.005587633476942314,0.014927596027170973
5,32,0.9986331167235706,0.028783224611700145,0.007688675421407305
5,33,0.9991363931676517,0.07222189046041412,0.0013422531088092596
6,1,1.0002991410867343,-0.00018328247399338209,3.0022861912559603e-5
6,2,1.0003098277505202,-0.00058642155885595,0.0001887821008916849
6,3,1.0003212013875193,-0.0010308241264306442,0.0004888066133327285
6,4,1.0003292458867517,-0.0014906603557955113,0.0009150804011241446
6,5,1.000333831977549,-0.0019451653878376576,0.0014651826363030267
6,6,1.0003343170839325,-0.0023829067373279398,0.002129480108774894
6,7,1.0003299065955653,-0.002797803934337452,0.00290708556490424
6,8,1.0003196132343164,-0.003185611202507933,0.003788199663440318
6,9,1.0003024838034524,-0.0035421089483598095,0.004770628398794708
6,10,1.0002774765718885,-0.0038624835526543636,0.0058424953926471375
6,11,1.0002437266453663,-0.0041412691215699645,0.006998850722426069
6,12,1.0002003658000027,-0.004372608157873017,0.00822437342742998
6,13,1.0001468481147195,-0.004550723827263952,0.009510366322070578
6,14,1.0000827100427945,-0.00467061614006683,0.01083721605668942
6,15,1.0000079523156937,-0.0047289025755688175,0.012192341555915568
6,16,0.9999227127989059,-0.004724803301307677,0.013552078621892262
6,17,0.9998276893009517,-0.00466116117480695,0.014901259005328432
6,18,0.9997236883565386,-0.004545498995424528,0.0162138573154682
6,19,0.9996120822721941,-0.004390998729452871,0.017474869258655278
6,20,0.9994942108649992,-0.004217395942616324,0.0186584745961937
6,21,0.9993718998477569,-0.00405161264921617,0.019752751905089735
6,22,0.9992467254682864,-0.0039279016872342185,0.020733068678450255
6,23,0.9991206583050208,-0.0038867611742200536,0.021589600019309034
6,24,0.9989952624575222,-0.003970886419614411,0.022291248337358797
6,25,0.9988726271469689,-0.004214148803415541,0.02281357548413527
6,26,0.9987542827560151,-0.00461513349461257,0.023082802750290843
6,27,0.9986422205638078,-0.005074535946158558,0.022992447213688882
6,28,0.9985433703837798,-0.0052417507103301175,0.022293493422568176
6,29,0.9984869064675761,-0.004174491321582681,0.020594291827087344
6,30,0.9985264481544445,0.00022220256180275548,0.01734869821536979
6,31,0.9987048353483293,0.011745603338971638,0.012288466193871864
6,32,0.9990256908542439,0.03564802230433497,0.006020959450817497
6,33,0.999545214795988,0.07564349888810587,0.001022585209972977
7,1,1.0002953139088964,-0.0002713706702180883,3.25879924475528e-5
7,2,1.0003070074979452,-0.0008290912684067876,0.0002074458885710772
7,3,1.0003193957847363,-0.001411618420601786,0.0005345314644292317
7,4,1.0003279766899982,-0.0019995039438298772,0.0009955105418701688
7,5,1.0003326513254454,-0.002575155280489968,0.0015834022266246284
7,6,1.0003328370411817,-0.0031284888172191916,0.0022880502879869843
7,7,1.0003277941452013,-0.0036537701204773553,0.003106651594419261
7,8,1.0003165939886358,-0.004146391114346699,0.004030826567407507
7,9,1.0002982902114552,-0.0046012137140562645,0.005057678061382552
7,10,1.0002718532222037,-0.005012039414505603,0.00617728856426936
7,11,1.0002363754242949,-0.005371617525235374,0.007384073670784199
7,12,1.0001909852770234,-0.005671978267298388,0.008664300694037187
7,13,1.0001350918629215,-0.005905010772523446,0.01000794917828713
7,14,1.000068273669771,-0.006063305332986286,0.011395953214330857
7,15,0.9999905537903152,-0.006141176477456093,0.01281310966759893
7,16,0.9999022353555441,-0.006135846777041694,0.014234701606018451
7,17,0.9998041872534918,-0.006048651202917993,0.015641131791224876
7,18,0.9996975862186599,-0.005886223429514975,0.017003234758614625
7,19,0.9995842041160121,-0.005661491095446512,0.018299279933938803
7,20,0.9994660332681031,-0.00539440111099123,0.019497619237809793
7,21,0.99934560619,-0.005112081320815574,0.02057655437585227
7,22,0.9992255197191148,-0.004848037546667346,0.021501868900187147
7,23,0.9991088714763497,-0.004639317060738032,0.022249619446413117
7,24,0.998998742882123,-0.004519455644570187,0.02277402751521264
7,25,0.9988987772548653,-0.004502440885967762,0.02303188860039934
7,26,0.9988126314348736,-0.004547203857889861,0.022931571333974672
7,27,0.9987460646310676,-0.004479090357952945,0.022352413810768988
7,28,0.9987101179081466,-0.0038266673843150548,0.02106558758879515
7,29,0.9987243848987363,-0.0015339570442238588,0.018791737642403335
7,30,0.998812745897075,0.004431140829596141,0.015220042042629915
7,31,0.9990009557998452,0.017372855166225606,0.010338872639132494
7,32,0.9992897138074037,0.04134184419248203,0.00484305941304938
7,33,0.999737827015718,0.07826153427940895,0.00079268140646832
8,1,1.0002953485049304,-0.0003578222570770339,3.377397627952074e-5
8,2,1.0003075935686994,-0.0010806530448109041,0.00021730136986722264
8,3,1.000320511322871,-0.001807421517513165,0.0005583893914957825
8,4,1.0003293342444064,-0.0025257866193705613,0.001037093919181608
8,5,1.00033392755597,-0.0032225286998644595,0.0016428599575543145
8,6,1.0003337142081534,-0.0038900940214132893,0.002365600543248702
8,7,1.000327953346127,-0.0045240040687438985,0.0032009165682034594
8,8,1.0003157356654895,-0.0051198650191719,0.0041421452484092505
8,9,1.000296084705846,-0.005671892531462892,0.005185990125944736
8,10,1.0002679618882393,-0.006172518139765495,0.00632485677162629
8,11,1.0002303893493174,-0.006612503340093107,0.00755291760321007
8,12,1.0001824790478664,-0.006981370898247759,0.008858397838055757
8,13,1.000123574510629,-0.007268112852567397,0.010230307923818972
8,14,1.0000532964873017,-0.007462203281134145,0.011650369056204587
8,15,0.9999716885151486,-0.00755483642370909,0.013100966606051624
8,16,0.9998792463930406,-0.007540341941940229,0.014556385671075762
8,17,0.9997770395316309,-0.007417606623301583,0.01599269002173644
8,18,0.9996666748829768,-0.007191407267674423,0.01737757423085851
8,19,0.9995503770896754,-0.0068734220657393555,0.018682815673434904
8,20,0.9994308535437932,-0.006482759281025454,0.019871335402239412
8,21,0.9993113607251998,-0.006045608677012599,0.020912720007562762
8,22,0.9991954803222012,-0.005593473103342582,0.021765001594961572
8,23,0.9990872475326047,-0.005158708669706444,0.02239354035682678
8,24,0.9989908537442299,-0.004764900837965058,0.022743372703259372
8,25,0.9989108954198266,-0.004406678040596876,0.022761131603892752
8,26,0.9988522955395903,-0.004007849450878939,0.022350848982126886
8,27,0.9988215209846009,-0.0033376445879692127,0.021399800185369747
8,28,0.9988269788410685,-0.001858259855181823,0.0197225534524602
8,29,0.998879529362574,0.0015142079932620334,0.017134116467576472
8,30,0.9989932845887906,0.008697640779880906,0.013465322815076274
8,31,0.9991829432829651,0.0225536381232638,0.008848986417203025
8,32,0.9994363418382616,0.0461767951127122,0.004008761960049132
8,33,0.9998239792970641,0.08037338222456933,0.0006456488242742942
9,1,1.000299411326764,-0.0004551686291795507,3.379740530093196e-5
9,2,1.0003117437165978,-0.0013479053817119769,0.00021922232154789355
9,3,1.000324722005565,-0.0022217005772946457,0.0005622027527123725
9,4,1.0003334381230438,-0.0030715937995359744,0.0010425037580916129
9,5,1.0003377067211583,-0.003889475811829848,0.001647052854408837
9,6,1.0003369287344455,-0.004671206318269974,0.0023666024265395764
9,7,1.000330325829901,-0.005414344258930409,0.003195691735356188
9,8,1.0003169767779019,-0.006115285883378785,0.004129806955122094
9,9,1.000295842087039,-0.00676793757468987,0.0051656480586266896
9,10,1.0002658497115389,-0.007363455802036813,0.0062983317603346285
9,11,1.0002259234230417,-0.007890475957641996,0.007522200904698055
9,12,1.000175138730634,-0.00833565086236528,0.008827808326207009
9,13,1.0001127501670355,-0.008684502833219119,0.010203576238051723
9,14,1.0000384088868204,-0.008922624487014344,0.011632277922814105
9,15,0.9999521676787444,-0.009037159810987593,0.013094158361625433
9,16,0.9998547194105766,-0.009018482904756712,0.014562629600560244
9,17,0.9997473409688888,-0.00886187512716613,0.01600961849711442
9,18,0.9996320880014572,-0.00856903905744716,0.017399817424726963
9,19,0.9995116482696114,-0.008149160940441517,0.018698934749921393
9,20,0.9993894427869167,-0.007619278366030492,0.019865078847207722
9,21,0.9992694078568064,-0.007003484197448666,0.02086042186453518
9,22,0.9991559964412654,-0.006330326938268878,0.02163724499336105
9,23,0.9990539510282499,-0.00562701828699861,0.02215350824103696
9,24,0.998968213764697,-0.004907784518722106,0.022349754401003064
9,25,0.9989037994621762,-0.004150791689622481,0.02216921761290436
9,26,0.9988657831083854,-0.0032534209922104526,0.021520835459964152
9,27,0.9988593857193571,-0.0019497232472575233,0.020309118513323926
9,28,0.9988899336911379,0.000328715641063636,0.018390334143502916
9,29,0.9989637451576152,0.004654176655008249,0.015647819917648877
9,30,0.9990888594327552,0.012806029698976169,0.012007855232471044
9,31,0.9992694340948122,0.027238783998132336,0.007691188891451231
9,32,0.9994895472392391,0.05030203598869326,0.0034001964167833273
9,33,0.9998370243503586,0.08210482645354897,0.0005398900210093209
10,1,1.0003075482196253,-0.0005440684701063735,3.271167548271505e-5
10,2,1.00031956198852,-0.001604973168417233,0.0002139473478926768
10,3,1.0003320880018916,-0.002622675340785731,0.0005475377371280126
10,4,1.0003402929013905,-0.003599746872628292,0.0010141555800266817
10,5,1.000343917179121,-0.004533718361372962,0.0015991985302490697
10,6,1.0003423231654096,-0.005424505938365975,0.002295077814752225
10,7,1.0003346679022322,-0.006272303929085343,0.0030959095570705104
10,8,1.0003199884262781,-0.007074754885093406,0.003999848681943381
10,9,1.0002971480611995,-0.007825715617590408,0.005004060619374068
10,10,1.0002650087637337,-0.008515099135190298,0.0061068037440721165
10,11,1.0002223607158462,-0.009129206229015419,0.0073030502455362295
10,12,1.0001682109321925,-0.009651371797635094,0.008586091742580506
10,13,1.0001016936974936,-0.010062980930663202,0.009944211135671063
10,14,1.000022467499786,-0.010344895443298188,0.011361575031536068
10,15,0.9999305802359956,-0.010479241341491401,0.012816665856420762
10,16,0.999826922332173,-0.010451432703557363,0.014282256033437976
10,17,0.9997129933284883,-0.010252203120601685,0.015726466140908592
10,18,0.999591323651535,-0.00987939990510731,0.017111236943013877
10,19,0.9994650936674815,-0.009339191763617067,0.018396738190662145
10,20,0.9993384495436819,-0.008646354296278766,0.0195369303814687
10,21,0.9992159820405655,-0.007823106719425908,0.020487826976887974
10,22,0.9991029152924733,-0.006895790246959741,0.021197683484246964
10,23,0.9990045140180638,-0.005887947450699501,0.021619692387155425
10,24,0.9989261687088765,-0.0048071040846885986,0.02169328458638889
10,25,0.9988728386789485,-0.0036199316447805756,0.021362625352401365
10,26,0.9988490718298482,-0.0022067260269031936,0.02054572464543908
10,27,0.998858556435953,-0.00028181225444841903,0.019165152141587673
10,28,0.9989044819486497,0.002733164823117728,0.017111673424886027
10,29,0.9989899958564222,0.00787655815949728,0.014319585732649269
10,30,0.9991180481170131,0.016778362133595293,0.010782317812658117
10,31,0.9992868295150915,0.031533627181944225,0.006768604108700342
10,32,0.9994824354859284,0.053918862197455834,0.002935276318269818
10,33,0.9997967892093345,0.08359419584256322,0.00046235446254063773
11,1,1.000319705086581,-0.0006372607803807233,3.0663854943080416e-5
11,2,1.0003309816490369,-0.0018596508699219474,0.00020190664677322898
11,3,1.0003426201499064,-0.0030148775776760897,0.0005154452040307736
11,4,1.0003499547970836,-0.004113152811251318,0.000953769198062516
11,5,1.0003526633094437,-0.00515802005168457,0.0015016701994745416
11,6,1.0003500631896165,-0.006153940251178071,0.0021540116829294863
11,7,1.0003412308609436,-0.007104230066931303,0.0029051370849002747
11,8,1.000325140084491,-0.008008190168289644,0.0037564121351471628
11,9,1.0003005300443344,-0.008859905498928667,0.004705965689155918
11,10,1.000266166238216,-0.009648139176532143,0.005755654847183014
11,11,1.000220671777197,-0.010356731865356697,0.006901585091118544
11,12,1.0001629489407267,-0.010965333242036824,0.008140255751150882
11,13,1.0000919760105478,-0.011450580719472088,0.009460355208451761
11,14,1.0000073830517242,-0.011787769940356718,0.01084789612538054
11,15,0.9999091845546104,-0.011952995561426257,0.012280124015365261
11,16,0.9997984433240715,-0.011925588865068629,0.013729545790711591
11,17,0.9996768680449294,-0.011690594802073436,0.015160957134083304
11,18,0.9995474486908323,-0.011240945688958148,0.016533897183190375
11,19,0.9994138465135427,-0.010578919310610188,0.01780358801837348
11,20,0.9992808978194009,-0.00971644570768878,0.018920443497738488
11,21,0.9991537933638647,-0.008673692449683242,0.019835372691827894
11,22,0.9990384222959489,-0.007475167083307869,0.020493853746233224
11,23,0.9989404295174691,-0.006141904661657218,0.020846130115735124
11,24,0.9988654397288876,-0.0046771232104414265,0.020832511515963745
11,25,0.9988181145751751,-0.0030403930041145756,0.02040014422717136
11,26,0.9988023296340349,-0.0011022258985637428,0.019476876556976667
11,27,0.9988204827976725,0.0014319496219435842,0.018001279867184354
11,28,0.9988741296598872,0.005135918912841302,0.015892125931479515
11,29,0.998963860201213,0.010998568631864653,0.013122152618850936
11,30,0.9990892029165972,0.020498684571341023,0.009731073140901101
11,31,0.9992455572460961,0.03541809470348695,0.006010499637858761
11,32,0.9994208648094843,0.057086133135468044,0.0025665962335307147
11,33,0.999708602333299,0.08486072133263323,0.0003992442739313093
12,1,1.0003357798740806,-0.000716366921981816,2.760665494626867e-5
12,2,1.0003459553105123,-0.0020877049716069673,0.00018337982184708432
12,3,1.000356237949501,-0.0033685460738781758,0.00046659605800086144
12,4,1.0003623393774201,-0.004576858003836752,0.0008625546572214065
12,5,1.0003638535230217,-0.005722494432773499,0.0013562591901941725
12,6,1.0003600449313654,-0.006814802957335962,0.0019457429136598451
12,7,1.0003498936831405,-0.00786056450781728,0.0026261689247165745
12,8,1.0003322867841218,-0.008861032138487237,0.003402609331668713
12,9,1.0003058102392075,-0.009810711066795933,0.004274626212835328
12,10,1.0002690963645946,-0.010697245512738277,0.00524811875532795
12,11,1.000220560752987,-0.011501836591066924,0.006320852444586022
12,12,1.0001589530900326,-0.012200023565702565,0.007493053327972109
12,13,1.0000830497082427,-0.01276301931189452,0.008754466637519985
12,14,0.9999924043241251,-0.013159651716523856,0.010093535637065144
12,15,0.9998869647448954,-0.013358931092527879,0.011486977601061547
12,16,0.9997679409644609,-0.01333301525252898,0.012907581695459748
12,17,0.999637253605824,-0.01306028387482241,0.014317486336065211
12,18,0.9994983648391983,-0.012528056363034789,0.015674292668008856
12,19,0.9993554537770256,-0.011734458919999908,0.016928928301963908
12,20,0.9992140706098753,-0.010688875566352557,0.01802876698032781
12,21,0.9990800255348795,-0.009410360914612488,0.018920431149913774
12,22,0.9989598404741149,-0.007923206419637495,0.01954736456218773
12,23,0.9988594779745676,-0.006248285249170052,0.019857906124544952
12,24,0.9987846777068471,-0.00438770252323369,0.019794019855652427
12,25,0.9987397246022971,-0.0022981964042442663,0.019306290990563257
12,26,0.9987278467430154,0.00015384280110009068,0.01833155433381845
12,27,0.9987503596514364,0.003264370096000747,0.016821740973212387
12,28,0.9988075010600959,0.007593224864716194,0.014718066521256084
12,29,0.9988979748951313,0.014072073889916076,0.012021907996587047
12,30,0.9990191346380177,0.0240347398466236,0.008804550675261287
12,31,0.9991648991473956,0.03899280944227783,0.005365803372879601
12,32,0.9993251318452238,0.05992319160524579,0.002261282689668983
12,33,0.9995888184334035,0.08598733616887679,0.0003503170598154053
13,1,1.0003555714889945,-0.0007937550712236861,2.364524106085079e-5
13,2,1.0003642627486484,-0.0022969558502539257,0.0001584914034396824
13,3,1.0003728289220777,-0.0036884540771315124,0.0004014838079243311
13,4,1.0003774298378698,-0.0049939935010207765,0.0007415488229882492
13,5,1.0003775856610952,-0.006229894314049841,0.0011646585468504777
13,6,1.0003725033634971,-0.007410611418228421,0.0016726204195785294
13,7,1.0003610578864044,-0.008546651940174656,0.0022618906203093338
13,8,1.0003420341816465,-0.009641499406371955,0.0029416309716968655
13,9,1.0003138454568605,-0.01069032618710465,0.0037132172035541635
13,10,1.000274961269455,-0.011679807994344238,0.004586967875059083
13,11,1.000223555778648,-0.012588494134361233,0.005562821519967477
13,12,1.0001581792329084,-0.013387577589921517,0.006645277764249297
13,13,1.000077357842559,-0.014042348974602872,0.007825895953553503
13,14,0.9999805094104532,-0.014514399076685348,0.009096280993896137
13,15,0.9998674639497058,-0.014764647944620622,0.010433549087780365
13,16,0.9997395228325163,-0.014756914868804389,0.011811535694931805
13,17,0.9995987835044794,-0.014461710565388967,0.01319062647114866
13,18,0.999449143141468,-0.013859641592620767,0.014527102001995027
13,19,0.9992952849220058,-0.012943834278020842,0.01576834336127131
13,20,0.9991434467879526,-0.011720658078569434,0.016859112080804546
13,21,0.9990000482676538,-0.010208067422739069,0.017742347384355216
13,22,0.9988722108803598,-0.008430710307877457,0.01835974318523072
13,23,0.9987662041559393,-0.006410513801329851,0.018658133820333208
13,24,0.9986878756750057,-0.004150449239054022,0.018581020410816947
13,25,0.9986412114665447,-0.0016073745750274755,0.01808198205744805
13,26,0.9986289345575513,0.001352135833281879,0.017105317153257013
13,27,0.9986515278449484,0.005019282062037757,0.015613644076145577
13,28,0.998708251955376,0.009932321827485616,0.013565800574616845
13,29,0.9987964904313336,0.016960167060224386,0.010984255018474672
13,30,0.998912201016989,0.027298384995255876,0.007961593387430412
13,31,0.9990484268901527,0.042223684158955596,0.004797030204112702
13,32,0.9991955361254878,0.06243284342012985,0.001998747932600922
13,33,0.9994399516241328,0.08695792337517162,0.0003059793837317148
14,1,1.0003787915773905,-0.0008518188422474276,1.8710449220415517e-5
14,2,1.0003856766414296,-0.002464398387365085,0.0001274870793964461
14,3,1.0003921402010614,-0.003946655209328014,0.00032081274147476317
14,4,1.0003949937167014,-0.0053319526950079054,0.0005922333639945325
14,5,1.0003936513622682,-0.006643057984350405,0.0009293243305626808
14,6,1.0003872516604677,-0.007899579223159276,0.0013381203141420426
14,7,1.0003745529224846,-0.009115870151308663,0.0018166738244986486
14,8,1.000354220425202,-0.010297828054431071,0.00237844563931378
14,9,1.0003244739706336,-0.011441493962688572,0.0030268535094606923
14,10,1.0002835875827247,-0.012532722711554454,0.0037768862694114
14,11,1.0002294556856275,-0.013547424564109333,0.004631103846844098
14,12,1.000160373301796,-0.014452244390760803,0.005598814968912107
14,13,1.0000745581255397,-0.015206077538048429,0.006674236224068999
14,14,0.9999712196112676,-0.01576251385511588,0.007853012287501227
14,15,0.9998500109673772,-0.016073369223364352,0.009113828850325507
14,16,0.9997122684816467,-0.016092967086581946,0.010432593141420641